
FAST Summary File

Predictions were generated on 31-Jan-2025 at 19:54:59 using OpenFAST, compiled as a 64-bit application using single precision at commit v3.5.3
  compiled with
    NWTC Subroutine Library
    ElastoDyn
    BeamDyn (unknown version, unknown date) [not called]
    InflowWind
    AeroDyn14 (unknown version, unknown date) [not called]
    AeroDyn
    ServoDyn
    HydroDyn
    SubDyn (unknown version, unknown date) [not called]
    ExtPtfm_MCKF (unknown version, unknown date) [not called]
    MAP (unknown version, unknown date) [not called]
    FEAMooring (unknown version, unknown date) [not called]
    MoorDyn (v2.0.0, 2023-09-18)
    OrcaFlexInterface (unknown version, unknown date) [not called]
    IceFloe (unknown version, unknown date) [not called]
    IceDyn (unknown version, unknown date) [not called]


Modeling a floating offshore turbine
Description from the FAST input file: 
  FAST Certification Test #25: NREL 5.0 MW Baseline Wind Turbine with OC4-DeepCwind semi configuration, for use in offshore analysis

Interpolation order for input/output time histories: 2 (quadratic)
Number of correction iterations:  0
Number of rows in Jacobian matrix used for coupling ElastoDyn to HydroDyn:     12


   Requested Time Steps  
  -------------------------------------------------
  Component          Time Step (s)    Subcycles (-)
  -----------------  ---------------  -------------
  FAST (glue code)     5.0000000E-03
  InflowWind           5.0000000E-03         1
  ElastoDyn            5.0000000E-03         1
  AeroDyn              5.0000000E-03         1
  ServoDyn             5.0000000E-03         1
  HydroDyn             5.0000000E-03         1
  MoorDyn              5.0000000E-03         1
  FAST output files    1.0000000E-02         2^-1


   Requested Channels in FAST Output File(s)  
  --------------------------------------------
  Number  Name                  Units                 Generated by
  ------  --------------------  --------------------  ------------
       1  Time                  (s)                   OpenFAST
       2  Wind1VelX             (m/s)                 InflowWind
       3  Wind1VelY             (m/s)                 InflowWind
       4  Wind1VelZ             (m/s)                 InflowWind
       5  RootMyb1              (kN-m)                ElastoDyn
       6  RootMyb2              (kN-m)                ElastoDyn
       7  RootMyb3              (kN-m)                ElastoDyn
       8  Q_Sg                  (m)                   ElastoDyn
       9  Q_Sw                  (m)                   ElastoDyn
      10  Q_Hv                  (m)                   ElastoDyn
      11  Q_R                   (rad)                 ElastoDyn
      12  Q_P                   (rad)                 ElastoDyn
      13  Q_Y                   (rad)                 ElastoDyn
      14  Q_TFA1                (m)                   ElastoDyn
      15  Q_TSS1                (m)                   ElastoDyn
      16  Q_TFA2                (m)                   ElastoDyn
      17  Q_TSS2                (m)                   ElastoDyn
      18  Q_Yaw                 (rad)                 ElastoDyn
      19  Q_GeAz                (rad)                 ElastoDyn
      20  Q_DrTr                (rad)                 ElastoDyn
      21  Q_B1F1                (m)                   ElastoDyn
      22  Q_B1E1                (m)                   ElastoDyn
      23  Q_B1F2                (m)                   ElastoDyn
      24  Q_B2F1                (m)                   ElastoDyn
      25  Q_B2E1                (m)                   ElastoDyn
      26  Q_B2F2                (m)                   ElastoDyn
      27  Q_B3F1                (m)                   ElastoDyn
      28  Q_B3E1                (m)                   ElastoDyn
      29  Q_B3F2                (m)                   ElastoDyn
      30  QD_Sg                 (m/s)                 ElastoDyn
      31  QD_Sw                 (m/s)                 ElastoDyn
      32  QD_Hv                 (m/s)                 ElastoDyn
      33  QD_R                  (rad/s)               ElastoDyn
      34  QD_P                  (rad/s)               ElastoDyn
      35  QD_Y                  (rad/s)               ElastoDyn
      36  QD_TFA1               (m/s)                 ElastoDyn
      37  QD_TSS1               (m/s)                 ElastoDyn
      38  QD_TFA2               (m/s)                 ElastoDyn
      39  QD_TSS2               (m/s)                 ElastoDyn
      40  QD_Yaw                (rad/s)               ElastoDyn
      41  QD_GeAz               (rad/s)               ElastoDyn
      42  QD_DrTr               (rad/s)               ElastoDyn
      43  QD_B1F1               (m/s)                 ElastoDyn
      44  QD_B1E1               (m/s)                 ElastoDyn
      45  QD_B1F2               (m/s)                 ElastoDyn
      46  QD_B2F1               (m/s)                 ElastoDyn
      47  QD_B2E1               (m/s)                 ElastoDyn
      48  QD_B2F2               (m/s)                 ElastoDyn
      49  QD_B3F1               (m/s)                 ElastoDyn
      50  QD_B3E1               (m/s)                 ElastoDyn
      51  QD_B3F2               (m/s)                 ElastoDyn
      52  Azimuth               (deg)                 ElastoDyn
      53  RotSpeed              (rpm)                 ElastoDyn
      54  GenSpeed              (rpm)                 ElastoDyn
      55  OoPDefl1              (m)                   ElastoDyn
      56  IPDefl1               (m)                   ElastoDyn
      57  TwstDefl1             (deg)                 ElastoDyn
      58  BldPitch1             (deg)                 ElastoDyn
      59  BldPitch2             (deg)                 ElastoDyn
      60  BldPitch3             (deg)                 ElastoDyn
      61  YawBrTAxp             (m/s^2)               ElastoDyn
      62  YawBrTAyp             (m/s^2)               ElastoDyn
      63  YawBrRAxp             (deg/s^2)             ElastoDyn
      64  RotTorq               (kN-m)                ElastoDyn
      65  RotThrust             (kN)                  ElastoDyn
      66  TTDspFA               (m)                   ElastoDyn
      67  TTDspSS               (m)                   ElastoDyn
      68  TTDspTwst             (deg)                 ElastoDyn
      69  PtfmSurge             (m)                   ElastoDyn
      70  PtfmSway              (m)                   ElastoDyn
      71  PtfmHeave             (m)                   ElastoDyn
      72  PtfmRoll              (deg)                 ElastoDyn
      73  PtfmPitch             (deg)                 ElastoDyn
      74  PtfmYaw               (deg)                 ElastoDyn
      75  PtfmRVxi              (deg/s)               ElastoDyn
      76  PtfmRVyi              (deg/s)               ElastoDyn
      77  PtfmRVzi              (deg/s)               ElastoDyn
      78  PtfmRAxi              (deg/s^2)             ElastoDyn
      79  PtfmRAyi              (deg/s^2)             ElastoDyn
      80  PtfmRAzi              (deg/s^2)             ElastoDyn
      81  RootFxc1              (kN)                  ElastoDyn
      82  RootFyc1              (kN)                  ElastoDyn
      83  RootFzc1              (kN)                  ElastoDyn
      84  RootMxc1              (kN-m)                ElastoDyn
      85  RootMyc1              (kN-m)                ElastoDyn
      86  RootMzc1              (kN-m)                ElastoDyn
      87  LSSGagMya             (kN-m)                ElastoDyn
      88  LSSGagMza             (kN-m)                ElastoDyn
      89  YawBrFxp              (kN)                  ElastoDyn
      90  YawBrFyp              (kN)                  ElastoDyn
      91  YawBrFzp              (kN)                  ElastoDyn
      92  YawBrMxp              (kN-m)                ElastoDyn
      93  YawBrMyp              (kN-m)                ElastoDyn
      94  YawBrMzp              (kN-m)                ElastoDyn
      95  TwrBsFxt              (kN)                  ElastoDyn
      96  TwrBsFyt              (kN)                  ElastoDyn
      97  TwrBsFzt              (kN)                  ElastoDyn
      98  TwrBsMxt              (kN-m)                ElastoDyn
      99  TwrBsMyt              (kN-m)                ElastoDyn
     100  TwrBsMzt              (kN-m)                ElastoDyn
     101  NcIMUTAxs             (m/s^2)               ElastoDyn
     102  NcIMUTAys             (m/s^2)               ElastoDyn
     103  NcIMUTAzs             (m/s^2)               ElastoDyn
     104  QD2_B1E1              (m/s^2)               ElastoDyn
     105  QD2_B2E1              (m/s^2)               ElastoDyn
     106  QD2_B3E1              (m/s^2)               ElastoDyn
     107  QD2_B1F1              (m/s^2)               ElastoDyn
     108  QD2_B2F1              (m/s^2)               ElastoDyn
     109  QD2_B3F1              (m/s^2)               ElastoDyn
     110  QD2_B1F2              (m/s^2)               ElastoDyn
     111  QD2_B2F2              (m/s^2)               ElastoDyn
     112  QD2_B3F2              (m/s^2)               ElastoDyn
     113  QD2_Teet              INVALID               ElastoDyn
     114  QD2_DrTr              (rad/s^2)             ElastoDyn
     115  QD2_GeAz              (rad/s^2)             ElastoDyn
     116  QD2_RFrl              (rad/s^2)             ElastoDyn
     117  QD2_TFrl              (rad/s^2)             ElastoDyn
     118  QD2_Yaw               (rad/s^2)             ElastoDyn
     119  QD2_TFA1              (m/s^2)               ElastoDyn
     120  QD2_TSS1              (m/s^2)               ElastoDyn
     121  QD2_TFA2              (m/s^2)               ElastoDyn
     122  QD2_TSS2              (m/s^2)               ElastoDyn
     123  QD2_Sg                (m/s^2)               ElastoDyn
     124  QD2_Sw                (m/s^2)               ElastoDyn
     125  QD2_Hv                (m/s^2)               ElastoDyn
     126  QD2_R                 (rad/s^2)             ElastoDyn
     127  QD2_P                 (rad/s^2)             ElastoDyn
     128  QD2_Y                 (rad/s^2)             ElastoDyn
     129  RtVAvgxh              (m/s)                 AeroDyn
     130  RtAeroMxi             (N-m)                 AeroDyn
     131  RtFldFxg              (N)                   AeroDyn
     132  RtFldFyi              (N)                   AeroDyn
     133  B1FldFxi              (N)                   AeroDyn
     134  B1FldFyi              (N)                   AeroDyn
     135  B1FldMxi              (N-m)                 AeroDyn
     136  B1FldMyi              (N-m)                 AeroDyn
     137  B2FldFxi              (N)                   AeroDyn
     138  B2FldFyi              (N)                   AeroDyn
     139  B2FldMxi              (N-m)                 AeroDyn
     140  B2FldMyi              (N-m)                 AeroDyn
     141  B3FldFxi              (N)                   AeroDyn
     142  B3FldFyi              (N)                   AeroDyn
     143  B3FldMxi              (N-m)                 AeroDyn
     144  B3FldMyi              (N-m)                 AeroDyn
     145  B1N1Fl                (N/m)                 AeroDyn
     146  B1N2Fl                (N/m)                 AeroDyn
     147  B1N3Fl                (N/m)                 AeroDyn
     148  B1N4Fl                (N/m)                 AeroDyn
     149  B1N5Fl                (N/m)                 AeroDyn
     150  B1N6Fl                (N/m)                 AeroDyn
     151  B1N7Fl                (N/m)                 AeroDyn
     152  B1N8Fl                (N/m)                 AeroDyn
     153  B1N9Fl                (N/m)                 AeroDyn
     154  B2N1Fl                (N/m)                 AeroDyn
     155  B2N2Fl                (N/m)                 AeroDyn
     156  B2N3Fl                (N/m)                 AeroDyn
     157  B2N4Fl                (N/m)                 AeroDyn
     158  B2N5Fl                (N/m)                 AeroDyn
     159  B2N6Fl                (N/m)                 AeroDyn
     160  B2N7Fl                (N/m)                 AeroDyn
     161  B2N8Fl                (N/m)                 AeroDyn
     162  B2N9Fl                (N/m)                 AeroDyn
     163  B3N1Fl                (N/m)                 AeroDyn
     164  B3N2Fl                (N/m)                 AeroDyn
     165  B3N3Fl                (N/m)                 AeroDyn
     166  B3N4Fl                (N/m)                 AeroDyn
     167  B3N5Fl                (N/m)                 AeroDyn
     168  B3N6Fl                (N/m)                 AeroDyn
     169  B3N7Fl                (N/m)                 AeroDyn
     170  B3N8Fl                (N/m)                 AeroDyn
     171  B3N9Fl                (N/m)                 AeroDyn
     172  B1N1Fd                (N/m)                 AeroDyn
     173  B1N2Fd                (N/m)                 AeroDyn
     174  B1N3Fd                (N/m)                 AeroDyn
     175  B1N4Fd                (N/m)                 AeroDyn
     176  B1N5Fd                (N/m)                 AeroDyn
     177  B1N6Fd                (N/m)                 AeroDyn
     178  B1N7Fd                (N/m)                 AeroDyn
     179  B1N8Fd                (N/m)                 AeroDyn
     180  B1N9Fd                (N/m)                 AeroDyn
     181  B2N1Fd                (N/m)                 AeroDyn
     182  B2N2Fd                (N/m)                 AeroDyn
     183  B2N3Fd                (N/m)                 AeroDyn
     184  B2N4Fd                (N/m)                 AeroDyn
     185  B2N5Fd                (N/m)                 AeroDyn
     186  B2N6Fd                (N/m)                 AeroDyn
     187  B2N7Fd                (N/m)                 AeroDyn
     188  B2N8Fd                (N/m)                 AeroDyn
     189  B2N9Fd                (N/m)                 AeroDyn
     190  B3N1Fd                (N/m)                 AeroDyn
     191  B3N2Fd                (N/m)                 AeroDyn
     192  B3N3Fd                (N/m)                 AeroDyn
     193  B3N4Fd                (N/m)                 AeroDyn
     194  B3N5Fd                (N/m)                 AeroDyn
     195  B3N6Fd                (N/m)                 AeroDyn
     196  B3N7Fd                (N/m)                 AeroDyn
     197  B3N8Fd                (N/m)                 AeroDyn
     198  B3N9Fd                (N/m)                 AeroDyn
     199  B1N1Alpha             (deg)                 AeroDyn
     200  B1N2Alpha             (deg)                 AeroDyn
     201  B1N3Alpha             (deg)                 AeroDyn
     202  B1N4Alpha             (deg)                 AeroDyn
     203  B1N5Alpha             (deg)                 AeroDyn
     204  B1N6Alpha             (deg)                 AeroDyn
     205  B1N7Alpha             (deg)                 AeroDyn
     206  B1N8Alpha             (deg)                 AeroDyn
     207  B1N9Alpha             (deg)                 AeroDyn
     208  B2N1Alpha             (deg)                 AeroDyn
     209  B2N2Alpha             (deg)                 AeroDyn
     210  B2N3Alpha             (deg)                 AeroDyn
     211  B2N4Alpha             (deg)                 AeroDyn
     212  B2N5Alpha             (deg)                 AeroDyn
     213  B2N6Alpha             (deg)                 AeroDyn
     214  B2N7Alpha             (deg)                 AeroDyn
     215  B2N8Alpha             (deg)                 AeroDyn
     216  B2N9Alpha             (deg)                 AeroDyn
     217  B3N1Alpha             (deg)                 AeroDyn
     218  B3N2Alpha             (deg)                 AeroDyn
     219  B3N3Alpha             (deg)                 AeroDyn
     220  B3N4Alpha             (deg)                 AeroDyn
     221  B3N5Alpha             (deg)                 AeroDyn
     222  B3N6Alpha             (deg)                 AeroDyn
     223  B3N7Alpha             (deg)                 AeroDyn
     224  B3N8Alpha             (deg)                 AeroDyn
     225  B3N9Alpha             (deg)                 AeroDyn
     226  TwN1Fdx               (N/m)                 AeroDyn
     227  TwN2Fdx               (N/m)                 AeroDyn
     228  TwN3Fdx               (N/m)                 AeroDyn
     229  TwN4Fdx               (N/m)                 AeroDyn
     230  TwN5Fdx               (N/m)                 AeroDyn
     231  TwN6Fdx               (N/m)                 AeroDyn
     232  TwN7Fdx               (N/m)                 AeroDyn
     233  TwN8Fdx               (N/m)                 AeroDyn
     234  TwN9Fdx               (N/m)                 AeroDyn
     235  GenPwr                (kW)                  ServoDyn
     236  GenTq                 (kN-m)                ServoDyn
     237  Wave1Elev             (m)                   HydroDyn
     238  HydroFxi              (N)                   HydroDyn
     239  HydroFyi              (N)                   HydroDyn
     240  HydroFzi              (N)                   HydroDyn
     241  HydroMxi              (N-m)                 HydroDyn
     242  HydroMyi              (N-m)                 HydroDyn
     243  HydroMzi              (N-m)                 HydroDyn
     244  B1Surge               (m)                   HydroDyn
     245  B1Sway                (m)                   HydroDyn
     246  B1Heave               (m)                   HydroDyn
     247  B1Roll                (rad)                 HydroDyn
     248  B1Pitch               (rad)                 HydroDyn
     249  B1Yaw                 (rad)                 HydroDyn
     250  B1TVxi                (m/s)                 HydroDyn
     251  B1TVyi                (m/s)                 HydroDyn
     252  B1TVzi                (m/s)                 HydroDyn
     253  B1RVxi                (rad/s)               HydroDyn
     254  B1RVyi                (rad/s)               HydroDyn
     255  B1RVzi                (rad/s)               HydroDyn
     256  B1TAxi                (m/s^2)               HydroDyn
     257  B1TAyi                (m/s^2)               HydroDyn
     258  B1TAzi                (m/s^2)               HydroDyn
     259  B1RAxi                (rad/s^2)             HydroDyn
     260  B1RAyi                (rad/s^2)             HydroDyn
     261  B1RAzi                (rad/s^2)             HydroDyn
     262  B1WvsFxi              (N)                   HydroDyn
     263  B1WvsFyi              (N)                   HydroDyn
     264  B1WvsFzi              (N)                   HydroDyn
     265  B1WvsMxi              (N-m)                 HydroDyn
     266  B1WvsMyi              (N-m)                 HydroDyn
     267  B1WvsMzi              (N-m)                 HydroDyn
     268  B1HDSFxi              (N)                   HydroDyn
     269  B1HDSFyi              (N)                   HydroDyn
     270  B1HDSFzi              (N)                   HydroDyn
     271  B1HDSMxi              (N-m)                 HydroDyn
     272  B1HDSMyi              (N-m)                 HydroDyn
     273  B1HDSMzi              (N-m)                 HydroDyn
     274  B1RdtFxi              (N)                   HydroDyn
     275  B1RdtFyi              (N)                   HydroDyn
     276  B1RdtFzi              (N)                   HydroDyn
     277  B1RdtMxi              (N-m)                 HydroDyn
     278  B1RdtMyi              (N-m)                 HydroDyn
     279  B1RdtMzi              (N-m)                 HydroDyn
     280  FAIRTEN1              (N)                   MoorDyn
     281  FAIRTEN2              (N)                   MoorDyn
     282  FAIRTEN3              (N)                   MoorDyn
     283  ANCHTEN1              (N)                   MoorDyn
     284  ANCHTEN2              (N)                   MoorDyn
     285  ANCHTEN3              (N)                   MoorDyn
