
FAST Summary File

Predictions were generated on 11-Sep-2024 at 14:44:17 using OpenFAST, compiled as a 64-bit application using single precision at commit v3.5.3
  compiled with
    NWTC Subroutine Library
    ElastoDyn
    BeamDyn (unknown version, unknown date) [not called]
    InflowWind
    AeroDyn14 (unknown version, unknown date) [not called]
    AeroDyn
    ServoDyn
    HydroDyn (unknown version, unknown date) [not called]
    SubDyn (unknown version, unknown date) [not called]
    ExtPtfm_MCKF (unknown version, unknown date) [not called]
    MAP (unknown version, unknown date) [not called]
    FEAMooring (unknown version, unknown date) [not called]
    MoorDyn (unknown version, unknown date) [not called]
    OrcaFlexInterface (unknown version, unknown date) [not called]
    IceFloe (unknown version, unknown date) [not called]
    IceDyn (unknown version, unknown date) [not called]


Modeling a land-based turbine
Description from the FAST input file: 
  FAST Certification Test #19: NREL 5.0 MW Baseline Wind Turbine with OC3 Monopile RF Configuration, for use in offshore analysis

Interpolation order for input/output time histories: 2 (quadratic)
Number of correction iterations:  0


   Requested Time Steps  
  -------------------------------------------------
  Component          Time Step (s)    Subcycles (-)
  -----------------  ---------------  -------------
  FAST (glue code)    1.250E-02
  InflowWind          1.250E-02              1
  ElastoDyn           1.250E-02              1
  AeroDyn             1.250E-02              1
  ServoDyn            1.250E-02              1
  FAST output files   1.250E-02              1


   Requested Channels in FAST Output File(s)  
  --------------------------------------------
  Number  Name                  Units                 Generated by
  ------  --------------------  --------------------  ------------
       1  Time                  (s)                   OpenFAST
       2  Wind1VelX             (m/s)                 InflowWind
       3  Wind1VelY             (m/s)                 InflowWind
       4  Wind1VelZ             (m/s)                 InflowWind
       5  OoPDefl1              (m)                   ElastoDyn
       6  IPDefl1               (m)                   ElastoDyn
       7  TwstDefl1             (deg)                 ElastoDyn
       8  BldPitch1             (deg)                 ElastoDyn
       9  Azimuth               (deg)                 ElastoDyn
      10  RotSpeed              (rpm)                 ElastoDyn
      11  GenSpeed              (rpm)                 ElastoDyn
      12  TwHt1TPxi             (m)                   ElastoDyn
      13  TwHt1TPyi             (m)                   ElastoDyn
      14  TTDspTwst             (deg)                 ElastoDyn
      15  PtfmSurge             (m)                   ElastoDyn
      16  PtfmSway              (m)                   ElastoDyn
      17  PtfmRoll              (deg)                 ElastoDyn
      18  PtfmPitch             (deg)                 ElastoDyn
      19  Spn2MLxb1             (kN-m)                ElastoDyn
      20  Spn2MLyb1             (kN-m)                ElastoDyn
      21  RootFxc1              (kN)                  ElastoDyn
      22  RootFyc1              (kN)                  ElastoDyn
      23  RootFzc1              (kN)                  ElastoDyn
      24  RootMxc1              (kN-m)                ElastoDyn
      25  RootMyc1              (kN-m)                ElastoDyn
      26  RootMzc1              (kN-m)                ElastoDyn
      27  RootMyb1              (kN-m)                ElastoDyn
      28  RootMyb2              (kN-m)                ElastoDyn
      29  RootMyb3              (kN-m)                ElastoDyn
      30  RotTorq               (kN-m)                ElastoDyn
      31  LSSGagMya             (kN-m)                ElastoDyn
      32  LSSGagMza             (kN-m)                ElastoDyn
      33  YawBrFxp              (kN)                  ElastoDyn
      34  YawBrFyp              (kN)                  ElastoDyn
      35  YawBrFzp              (kN)                  ElastoDyn
      36  YawBrMxp              (kN-m)                ElastoDyn
      37  YawBrMyp              (kN-m)                ElastoDyn
      38  YawBrMzp              (kN-m)                ElastoDyn
      39  TTDspFA               (m)                   ElastoDyn
      40  TTDspSS               (m)                   ElastoDyn
      41  Q_Sg                  (m)                   ElastoDyn
      42  Q_Sw                  (m)                   ElastoDyn
      43  Q_Hv                  (m)                   ElastoDyn
      44  Q_R                   (rad)                 ElastoDyn
      45  Q_P                   (rad)                 ElastoDyn
      46  Q_Y                   (rad)                 ElastoDyn
      47  Q_TFA1                (m)                   ElastoDyn
      48  Q_TSS1                (m)                   ElastoDyn
      49  Q_TFA2                (m)                   ElastoDyn
      50  Q_TSS2                (m)                   ElastoDyn
      51  Q_Yaw                 (rad)                 ElastoDyn
      52  Q_GeAz                (rad)                 ElastoDyn
      53  Q_DrTr                (rad)                 ElastoDyn
      54  Q_B1F1                (m)                   ElastoDyn
      55  Q_B1E1                (m)                   ElastoDyn
      56  Q_B1F2                (m)                   ElastoDyn
      57  Q_B2F1                (m)                   ElastoDyn
      58  Q_B2E1                (m)                   ElastoDyn
      59  Q_B2F2                (m)                   ElastoDyn
      60  Q_B3F1                (m)                   ElastoDyn
      61  Q_B3E1                (m)                   ElastoDyn
      62  Q_B3F2                (m)                   ElastoDyn
      63  QD_Sg                 (m/s)                 ElastoDyn
      64  QD_Sw                 (m/s)                 ElastoDyn
      65  QD_Hv                 (m/s)                 ElastoDyn
      66  QD_R                  (rad/s)               ElastoDyn
      67  QD_P                  (rad/s)               ElastoDyn
      68  QD_Y                  (rad/s)               ElastoDyn
      69  QD_TFA1               (m/s)                 ElastoDyn
      70  QD_TSS1               (m/s)                 ElastoDyn
      71  QD_TFA2               (m/s)                 ElastoDyn
      72  QD_TSS2               (m/s)                 ElastoDyn
      73  QD_Yaw                (rad/s)               ElastoDyn
      74  QD_GeAz               (rad/s)               ElastoDyn
      75  QD_DrTr               (rad/s)               ElastoDyn
      76  QD_B1F1               (m/s)                 ElastoDyn
      77  QD_B1E1               (m/s)                 ElastoDyn
      78  QD_B1F2               (m/s)                 ElastoDyn
      79  QD_B2F1               (m/s)                 ElastoDyn
      80  QD_B2E1               (m/s)                 ElastoDyn
      81  QD_B2F2               (m/s)                 ElastoDyn
      82  QD_B3F1               (m/s)                 ElastoDyn
      83  QD_B3E1               (m/s)                 ElastoDyn
      84  QD_B3F2               (m/s)                 ElastoDyn
      85  QD2_B1E1              (m/s^2)               ElastoDyn
      86  QD2_B2E1              (m/s^2)               ElastoDyn
      87  QD2_B3E1              (m/s^2)               ElastoDyn
      88  QD2_B1F1              (m/s^2)               ElastoDyn
      89  QD2_B2F1              (m/s^2)               ElastoDyn
      90  QD2_B3F1              (m/s^2)               ElastoDyn
      91  QD2_B1F2              (m/s^2)               ElastoDyn
      92  QD2_B2F2              (m/s^2)               ElastoDyn
      93  QD2_B3F2              (m/s^2)               ElastoDyn
      94  QD2_Teet              INVALID               ElastoDyn
      95  QD2_DrTr              (rad/s^2)             ElastoDyn
      96  QD2_GeAz              (rad/s^2)             ElastoDyn
      97  QD2_RFrl              (rad/s^2)             ElastoDyn
      98  QD2_TFrl              (rad/s^2)             ElastoDyn
      99  QD2_Yaw               (rad/s^2)             ElastoDyn
     100  QD2_TFA1              (m/s^2)               ElastoDyn
     101  QD2_TSS1              (m/s^2)               ElastoDyn
     102  QD2_TFA2              (m/s^2)               ElastoDyn
     103  QD2_TSS2              (m/s^2)               ElastoDyn
     104  QD2_Sg                (m/s^2)               ElastoDyn
     105  QD2_Sw                (m/s^2)               ElastoDyn
     106  QD2_Hv                (m/s^2)               ElastoDyn
     107  QD2_R                 (rad/s^2)             ElastoDyn
     108  QD2_P                 (rad/s^2)             ElastoDyn
     109  QD2_Y                 (rad/s^2)             ElastoDyn
     110  RtFldFxg              (N)                   AeroDyn
     111  RtFldFyi              (N)                   AeroDyn
     112  B1FldFxi              (N)                   AeroDyn
     113  B1FldFyi              (N)                   AeroDyn
     114  B1FldMxi              (N-m)                 AeroDyn
     115  B1FldMyi              (N-m)                 AeroDyn
     116  B2FldFxi              (N)                   AeroDyn
     117  B2FldFyi              (N)                   AeroDyn
     118  B2FldMxi              (N-m)                 AeroDyn
     119  B2FldMyi              (N-m)                 AeroDyn
     120  B3FldFxi              (N)                   AeroDyn
     121  B3FldFyi              (N)                   AeroDyn
     122  B3FldMxi              (N-m)                 AeroDyn
     123  B3FldMyi              (N-m)                 AeroDyn
     124  B1N1Fl                (N/m)                 AeroDyn
     125  B1N2Fl                (N/m)                 AeroDyn
     126  B1N3Fl                (N/m)                 AeroDyn
     127  B1N4Fl                (N/m)                 AeroDyn
     128  B1N5Fl                (N/m)                 AeroDyn
     129  B1N6Fl                (N/m)                 AeroDyn
     130  B1N7Fl                (N/m)                 AeroDyn
     131  B1N8Fl                (N/m)                 AeroDyn
     132  B1N9Fl                (N/m)                 AeroDyn
     133  B2N1Fl                (N/m)                 AeroDyn
     134  B2N2Fl                (N/m)                 AeroDyn
     135  B2N3Fl                (N/m)                 AeroDyn
     136  B2N4Fl                (N/m)                 AeroDyn
     137  B2N5Fl                (N/m)                 AeroDyn
     138  B2N6Fl                (N/m)                 AeroDyn
     139  B2N7Fl                (N/m)                 AeroDyn
     140  B2N8Fl                (N/m)                 AeroDyn
     141  B2N9Fl                (N/m)                 AeroDyn
     142  B3N1Fl                (N/m)                 AeroDyn
     143  B3N2Fl                (N/m)                 AeroDyn
     144  B3N3Fl                (N/m)                 AeroDyn
     145  B3N4Fl                (N/m)                 AeroDyn
     146  B3N5Fl                (N/m)                 AeroDyn
     147  B3N6Fl                (N/m)                 AeroDyn
     148  B3N7Fl                (N/m)                 AeroDyn
     149  B3N8Fl                (N/m)                 AeroDyn
     150  B3N9Fl                (N/m)                 AeroDyn
     151  B1N1Fd                (N/m)                 AeroDyn
     152  B1N2Fd                (N/m)                 AeroDyn
     153  B1N3Fd                (N/m)                 AeroDyn
     154  B1N4Fd                (N/m)                 AeroDyn
     155  B1N5Fd                (N/m)                 AeroDyn
     156  B1N6Fd                (N/m)                 AeroDyn
     157  B1N7Fd                (N/m)                 AeroDyn
     158  B1N8Fd                (N/m)                 AeroDyn
     159  B1N9Fd                (N/m)                 AeroDyn
     160  B2N1Fd                (N/m)                 AeroDyn
     161  B2N2Fd                (N/m)                 AeroDyn
     162  B2N3Fd                (N/m)                 AeroDyn
     163  B2N4Fd                (N/m)                 AeroDyn
     164  B2N5Fd                (N/m)                 AeroDyn
     165  B2N6Fd                (N/m)                 AeroDyn
     166  B2N7Fd                (N/m)                 AeroDyn
     167  B2N8Fd                (N/m)                 AeroDyn
     168  B2N9Fd                (N/m)                 AeroDyn
     169  B3N1Fd                (N/m)                 AeroDyn
     170  B3N2Fd                (N/m)                 AeroDyn
     171  B3N3Fd                (N/m)                 AeroDyn
     172  B3N4Fd                (N/m)                 AeroDyn
     173  B3N5Fd                (N/m)                 AeroDyn
     174  B3N6Fd                (N/m)                 AeroDyn
     175  B3N7Fd                (N/m)                 AeroDyn
     176  B3N8Fd                (N/m)                 AeroDyn
     177  B3N9Fd                (N/m)                 AeroDyn
     178  B1N1Alpha             (deg)                 AeroDyn
     179  B1N2Alpha             (deg)                 AeroDyn
     180  B1N3Alpha             (deg)                 AeroDyn
     181  B1N4Alpha             (deg)                 AeroDyn
     182  B1N5Alpha             (deg)                 AeroDyn
     183  B1N6Alpha             (deg)                 AeroDyn
     184  B1N7Alpha             (deg)                 AeroDyn
     185  B1N8Alpha             (deg)                 AeroDyn
     186  B1N9Alpha             (deg)                 AeroDyn
     187  B2N1Alpha             (deg)                 AeroDyn
     188  B2N2Alpha             (deg)                 AeroDyn
     189  B2N3Alpha             (deg)                 AeroDyn
     190  B2N4Alpha             (deg)                 AeroDyn
     191  B2N5Alpha             (deg)                 AeroDyn
     192  B2N6Alpha             (deg)                 AeroDyn
     193  B2N7Alpha             (deg)                 AeroDyn
     194  B2N8Alpha             (deg)                 AeroDyn
     195  B2N9Alpha             (deg)                 AeroDyn
     196  B3N1Alpha             (deg)                 AeroDyn
     197  B3N2Alpha             (deg)                 AeroDyn
     198  B3N3Alpha             (deg)                 AeroDyn
     199  B3N4Alpha             (deg)                 AeroDyn
     200  B3N5Alpha             (deg)                 AeroDyn
     201  B3N6Alpha             (deg)                 AeroDyn
     202  B3N7Alpha             (deg)                 AeroDyn
     203  B3N8Alpha             (deg)                 AeroDyn
     204  B3N9Alpha             (deg)                 AeroDyn
     205  TwN1Fdx               (N/m)                 AeroDyn
     206  TwN2Fdx               (N/m)                 AeroDyn
     207  TwN3Fdx               (N/m)                 AeroDyn
     208  TwN4Fdx               (N/m)                 AeroDyn
     209  TwN5Fdx               (N/m)                 AeroDyn
     210  TwN6Fdx               (N/m)                 AeroDyn
     211  TwN7Fdx               (N/m)                 AeroDyn
     212  TwN8Fdx               (N/m)                 AeroDyn
     213  TwN9Fdx               (N/m)                 AeroDyn
     214  GenPwr                (kW)                  ServoDyn
     215  GenTq                 (kN-m)                ServoDyn
