
FAST Summary File

Predictions were generated on 18-Sep-2024 at 14:32:05 using OpenFAST, compiled as a 64-bit application using single precision at commit v3.5.3
  compiled with
    NWTC Subroutine Library
    ElastoDyn
    BeamDyn (unknown version, unknown date) [not called]
    InflowWind
    AeroDyn14 (unknown version, unknown date) [not called]
    AeroDyn
    ServoDyn
    HydroDyn
    SubDyn (unknown version, unknown date) [not called]
    ExtPtfm_MCKF (unknown version, unknown date) [not called]
    MAP (unknown version, unknown date) [not called]
    FEAMooring (unknown version, unknown date) [not called]
    MoorDyn (v2.0.0, 2023-09-18)
    OrcaFlexInterface (unknown version, unknown date) [not called]
    IceFloe (unknown version, unknown date) [not called]
    IceDyn (unknown version, unknown date) [not called]


Modeling a floating offshore turbine
Description from the FAST input file: 
  FAST Certification Test #25: NREL 5.0 MW Baseline Wind Turbine with OC4-DeepCwind semi configuration, for use in offshore analysis

Interpolation order for input/output time histories: 2 (quadratic)
Number of correction iterations:  0
Number of rows in Jacobian matrix used for coupling ElastoDyn to HydroDyn:     12


   Requested Time Steps  
  -------------------------------------------------
  Component          Time Step (s)    Subcycles (-)
  -----------------  ---------------  -------------
  FAST (glue code)     5.0000000E-03
  InflowWind           5.0000000E-03         1
  ElastoDyn            5.0000000E-03         1
  AeroDyn              5.0000000E-03         1
  ServoDyn             5.0000000E-03         1
  HydroDyn             5.0000000E-03         1
  MoorDyn              5.0000000E-03         1
  FAST output files    1.0000000E-02         2^-1


   Requested Channels in FAST Output File(s)  
  --------------------------------------------
  Number  Name                  Units                 Generated by
  ------  --------------------  --------------------  ------------
       1  Time                  (s)                   OpenFAST
       2  Wind1VelX             (m/s)                 InflowWind
       3  Wind1VelY             (m/s)                 InflowWind
       4  Wind1VelZ             (m/s)                 InflowWind
       5  Q_Sg                  (m)                   ElastoDyn
       6  Q_Sw                  (m)                   ElastoDyn
       7  Q_Hv                  (m)                   ElastoDyn
       8  Q_R                   (rad)                 ElastoDyn
       9  Q_P                   (rad)                 ElastoDyn
      10  Q_Y                   (rad)                 ElastoDyn
      11  Q_TFA1                (m)                   ElastoDyn
      12  Q_TSS1                (m)                   ElastoDyn
      13  Q_TFA2                (m)                   ElastoDyn
      14  Q_TSS2                (m)                   ElastoDyn
      15  Q_Yaw                 (rad)                 ElastoDyn
      16  Q_GeAz                (rad)                 ElastoDyn
      17  Q_DrTr                (rad)                 ElastoDyn
      18  Q_B1F1                (m)                   ElastoDyn
      19  Q_B1E1                (m)                   ElastoDyn
      20  Q_B1F2                (m)                   ElastoDyn
      21  Q_B2F1                (m)                   ElastoDyn
      22  Q_B2E1                (m)                   ElastoDyn
      23  Q_B2F2                (m)                   ElastoDyn
      24  Q_B3F1                (m)                   ElastoDyn
      25  Q_B3E1                (m)                   ElastoDyn
      26  Q_B3F2                (m)                   ElastoDyn
      27  QD_Sg                 (m/s)                 ElastoDyn
      28  QD_Sw                 (m/s)                 ElastoDyn
      29  QD_Hv                 (m/s)                 ElastoDyn
      30  QD_R                  (rad/s)               ElastoDyn
      31  QD_P                  (rad/s)               ElastoDyn
      32  QD_Y                  (rad/s)               ElastoDyn
      33  QD_TFA1               (m/s)                 ElastoDyn
      34  QD_TSS1               (m/s)                 ElastoDyn
      35  QD_TFA2               (m/s)                 ElastoDyn
      36  QD_TSS2               (m/s)                 ElastoDyn
      37  QD_Yaw                (rad/s)               ElastoDyn
      38  QD_GeAz               (rad/s)               ElastoDyn
      39  QD_DrTr               (rad/s)               ElastoDyn
      40  QD_B1F1               (m/s)                 ElastoDyn
      41  QD_B1E1               (m/s)                 ElastoDyn
      42  QD_B1F2               (m/s)                 ElastoDyn
      43  QD_B2F1               (m/s)                 ElastoDyn
      44  QD_B2E1               (m/s)                 ElastoDyn
      45  QD_B2F2               (m/s)                 ElastoDyn
      46  QD_B3F1               (m/s)                 ElastoDyn
      47  QD_B3E1               (m/s)                 ElastoDyn
      48  QD_B3F2               (m/s)                 ElastoDyn
      49  Azimuth               (deg)                 ElastoDyn
      50  RotSpeed              (rpm)                 ElastoDyn
      51  GenSpeed              (rpm)                 ElastoDyn
      52  OoPDefl1              (m)                   ElastoDyn
      53  IPDefl1               (m)                   ElastoDyn
      54  TwstDefl1             (deg)                 ElastoDyn
      55  BldPitch1             (deg)                 ElastoDyn
      56  BldPitch2             (deg)                 ElastoDyn
      57  BldPitch3             (deg)                 ElastoDyn
      58  YawBrTAxp             (m/s^2)               ElastoDyn
      59  YawBrTAyp             (m/s^2)               ElastoDyn
      60  YawBrRAxp             (deg/s^2)             ElastoDyn
      61  RotTorq               (kN-m)                ElastoDyn
      62  RotThrust             (kN)                  ElastoDyn
      63  TTDspFA               (m)                   ElastoDyn
      64  TTDspSS               (m)                   ElastoDyn
      65  TTDspTwst             (deg)                 ElastoDyn
      66  PtfmSurge             (m)                   ElastoDyn
      67  PtfmSway              (m)                   ElastoDyn
      68  PtfmHeave             (m)                   ElastoDyn
      69  PtfmRoll              (deg)                 ElastoDyn
      70  PtfmPitch             (deg)                 ElastoDyn
      71  PtfmYaw               (deg)                 ElastoDyn
      72  PtfmRVxi              (deg/s)               ElastoDyn
      73  PtfmRVyi              (deg/s)               ElastoDyn
      74  PtfmRVzi              (deg/s)               ElastoDyn
      75  PtfmRAxi              (deg/s^2)             ElastoDyn
      76  PtfmRAyi              (deg/s^2)             ElastoDyn
      77  PtfmRAzi              (deg/s^2)             ElastoDyn
      78  RootFxc1              (kN)                  ElastoDyn
      79  RootFyc1              (kN)                  ElastoDyn
      80  RootFzc1              (kN)                  ElastoDyn
      81  RootMxc1              (kN-m)                ElastoDyn
      82  RootMyc1              (kN-m)                ElastoDyn
      83  RootMzc1              (kN-m)                ElastoDyn
      84  LSSGagMya             (kN-m)                ElastoDyn
      85  LSSGagMza             (kN-m)                ElastoDyn
      86  YawBrFxp              (kN)                  ElastoDyn
      87  YawBrFyp              (kN)                  ElastoDyn
      88  YawBrFzp              (kN)                  ElastoDyn
      89  YawBrMxp              (kN-m)                ElastoDyn
      90  YawBrMyp              (kN-m)                ElastoDyn
      91  YawBrMzp              (kN-m)                ElastoDyn
      92  TwrBsFxt              (kN)                  ElastoDyn
      93  TwrBsFyt              (kN)                  ElastoDyn
      94  TwrBsFzt              (kN)                  ElastoDyn
      95  TwrBsMxt              (kN-m)                ElastoDyn
      96  TwrBsMyt              (kN-m)                ElastoDyn
      97  TwrBsMzt              (kN-m)                ElastoDyn
      98  NcIMUTAxs             (m/s^2)               ElastoDyn
      99  NcIMUTAys             (m/s^2)               ElastoDyn
     100  NcIMUTAzs             (m/s^2)               ElastoDyn
     101  QD2_B1E1              (m/s^2)               ElastoDyn
     102  QD2_B2E1              (m/s^2)               ElastoDyn
     103  QD2_B3E1              (m/s^2)               ElastoDyn
     104  QD2_B1F1              (m/s^2)               ElastoDyn
     105  QD2_B2F1              (m/s^2)               ElastoDyn
     106  QD2_B3F1              (m/s^2)               ElastoDyn
     107  QD2_B1F2              (m/s^2)               ElastoDyn
     108  QD2_B2F2              (m/s^2)               ElastoDyn
     109  QD2_B3F2              (m/s^2)               ElastoDyn
     110  QD2_Teet              INVALID               ElastoDyn
     111  QD2_DrTr              (rad/s^2)             ElastoDyn
     112  QD2_GeAz              (rad/s^2)             ElastoDyn
     113  QD2_RFrl              (rad/s^2)             ElastoDyn
     114  QD2_TFrl              (rad/s^2)             ElastoDyn
     115  QD2_Yaw               (rad/s^2)             ElastoDyn
     116  QD2_TFA1              (m/s^2)               ElastoDyn
     117  QD2_TSS1              (m/s^2)               ElastoDyn
     118  QD2_TFA2              (m/s^2)               ElastoDyn
     119  QD2_TSS2              (m/s^2)               ElastoDyn
     120  QD2_Sg                (m/s^2)               ElastoDyn
     121  QD2_Sw                (m/s^2)               ElastoDyn
     122  QD2_Hv                (m/s^2)               ElastoDyn
     123  QD2_R                 (rad/s^2)             ElastoDyn
     124  QD2_P                 (rad/s^2)             ElastoDyn
     125  QD2_Y                 (rad/s^2)             ElastoDyn
     126  RtFldFxg              (N)                   AeroDyn
     127  RtFldFyi              (N)                   AeroDyn
     128  B1FldFxi              (N)                   AeroDyn
     129  B1FldFyi              (N)                   AeroDyn
     130  B1FldMxi              (N-m)                 AeroDyn
     131  B1FldMyi              (N-m)                 AeroDyn
     132  B2FldFxi              (N)                   AeroDyn
     133  B2FldFyi              (N)                   AeroDyn
     134  B2FldMxi              (N-m)                 AeroDyn
     135  B2FldMyi              (N-m)                 AeroDyn
     136  B3FldFxi              (N)                   AeroDyn
     137  B3FldFyi              (N)                   AeroDyn
     138  B3FldMxi              (N-m)                 AeroDyn
     139  B3FldMyi              (N-m)                 AeroDyn
     140  B1N1Fl                (N/m)                 AeroDyn
     141  B1N2Fl                (N/m)                 AeroDyn
     142  B1N3Fl                (N/m)                 AeroDyn
     143  B1N4Fl                (N/m)                 AeroDyn
     144  B1N5Fl                (N/m)                 AeroDyn
     145  B1N6Fl                (N/m)                 AeroDyn
     146  B1N7Fl                (N/m)                 AeroDyn
     147  B1N8Fl                (N/m)                 AeroDyn
     148  B1N9Fl                (N/m)                 AeroDyn
     149  B2N1Fl                (N/m)                 AeroDyn
     150  B2N2Fl                (N/m)                 AeroDyn
     151  B2N3Fl                (N/m)                 AeroDyn
     152  B2N4Fl                (N/m)                 AeroDyn
     153  B2N5Fl                (N/m)                 AeroDyn
     154  B2N6Fl                (N/m)                 AeroDyn
     155  B2N7Fl                (N/m)                 AeroDyn
     156  B2N8Fl                (N/m)                 AeroDyn
     157  B2N9Fl                (N/m)                 AeroDyn
     158  B3N1Fl                (N/m)                 AeroDyn
     159  B3N2Fl                (N/m)                 AeroDyn
     160  B3N3Fl                (N/m)                 AeroDyn
     161  B3N4Fl                (N/m)                 AeroDyn
     162  B3N5Fl                (N/m)                 AeroDyn
     163  B3N6Fl                (N/m)                 AeroDyn
     164  B3N7Fl                (N/m)                 AeroDyn
     165  B3N8Fl                (N/m)                 AeroDyn
     166  B3N9Fl                (N/m)                 AeroDyn
     167  B1N1Fd                (N/m)                 AeroDyn
     168  B1N2Fd                (N/m)                 AeroDyn
     169  B1N3Fd                (N/m)                 AeroDyn
     170  B1N4Fd                (N/m)                 AeroDyn
     171  B1N5Fd                (N/m)                 AeroDyn
     172  B1N6Fd                (N/m)                 AeroDyn
     173  B1N7Fd                (N/m)                 AeroDyn
     174  B1N8Fd                (N/m)                 AeroDyn
     175  B1N9Fd                (N/m)                 AeroDyn
     176  B2N1Fd                (N/m)                 AeroDyn
     177  B2N2Fd                (N/m)                 AeroDyn
     178  B2N3Fd                (N/m)                 AeroDyn
     179  B2N4Fd                (N/m)                 AeroDyn
     180  B2N5Fd                (N/m)                 AeroDyn
     181  B2N6Fd                (N/m)                 AeroDyn
     182  B2N7Fd                (N/m)                 AeroDyn
     183  B2N8Fd                (N/m)                 AeroDyn
     184  B2N9Fd                (N/m)                 AeroDyn
     185  B3N1Fd                (N/m)                 AeroDyn
     186  B3N2Fd                (N/m)                 AeroDyn
     187  B3N3Fd                (N/m)                 AeroDyn
     188  B3N4Fd                (N/m)                 AeroDyn
     189  B3N5Fd                (N/m)                 AeroDyn
     190  B3N6Fd                (N/m)                 AeroDyn
     191  B3N7Fd                (N/m)                 AeroDyn
     192  B3N8Fd                (N/m)                 AeroDyn
     193  B3N9Fd                (N/m)                 AeroDyn
     194  B1N1Alpha             (deg)                 AeroDyn
     195  B1N2Alpha             (deg)                 AeroDyn
     196  B1N3Alpha             (deg)                 AeroDyn
     197  B1N4Alpha             (deg)                 AeroDyn
     198  B1N5Alpha             (deg)                 AeroDyn
     199  B1N6Alpha             (deg)                 AeroDyn
     200  B1N7Alpha             (deg)                 AeroDyn
     201  B1N8Alpha             (deg)                 AeroDyn
     202  B1N9Alpha             (deg)                 AeroDyn
     203  B2N1Alpha             (deg)                 AeroDyn
     204  B2N2Alpha             (deg)                 AeroDyn
     205  B2N3Alpha             (deg)                 AeroDyn
     206  B2N4Alpha             (deg)                 AeroDyn
     207  B2N5Alpha             (deg)                 AeroDyn
     208  B2N6Alpha             (deg)                 AeroDyn
     209  B2N7Alpha             (deg)                 AeroDyn
     210  B2N8Alpha             (deg)                 AeroDyn
     211  B2N9Alpha             (deg)                 AeroDyn
     212  B3N1Alpha             (deg)                 AeroDyn
     213  B3N2Alpha             (deg)                 AeroDyn
     214  B3N3Alpha             (deg)                 AeroDyn
     215  B3N4Alpha             (deg)                 AeroDyn
     216  B3N5Alpha             (deg)                 AeroDyn
     217  B3N6Alpha             (deg)                 AeroDyn
     218  B3N7Alpha             (deg)                 AeroDyn
     219  B3N8Alpha             (deg)                 AeroDyn
     220  B3N9Alpha             (deg)                 AeroDyn
     221  TwN1Fdx               (N/m)                 AeroDyn
     222  TwN2Fdx               (N/m)                 AeroDyn
     223  TwN3Fdx               (N/m)                 AeroDyn
     224  TwN4Fdx               (N/m)                 AeroDyn
     225  TwN5Fdx               (N/m)                 AeroDyn
     226  TwN6Fdx               (N/m)                 AeroDyn
     227  TwN7Fdx               (N/m)                 AeroDyn
     228  TwN8Fdx               (N/m)                 AeroDyn
     229  TwN9Fdx               (N/m)                 AeroDyn
     230  GenPwr                (kW)                  ServoDyn
     231  GenTq                 (kN-m)                ServoDyn
     232  Wave1Elev             (m)                   HydroDyn
     233  HydroFxi              (N)                   HydroDyn
     234  HydroFyi              (N)                   HydroDyn
     235  HydroFzi              (N)                   HydroDyn
     236  HydroMxi              (N-m)                 HydroDyn
     237  HydroMyi              (N-m)                 HydroDyn
     238  HydroMzi              (N-m)                 HydroDyn
     239  B1Surge               (m)                   HydroDyn
     240  B1Sway                (m)                   HydroDyn
     241  B1Heave               (m)                   HydroDyn
     242  B1Roll                (rad)                 HydroDyn
     243  B1Pitch               (rad)                 HydroDyn
     244  B1Yaw                 (rad)                 HydroDyn
     245  B1TVxi                (m/s)                 HydroDyn
     246  B1TVyi                (m/s)                 HydroDyn
     247  B1TVzi                (m/s)                 HydroDyn
     248  B1RVxi                (rad/s)               HydroDyn
     249  B1RVyi                (rad/s)               HydroDyn
     250  B1RVzi                (rad/s)               HydroDyn
     251  B1TAxi                (m/s^2)               HydroDyn
     252  B1TAyi                (m/s^2)               HydroDyn
     253  B1TAzi                (m/s^2)               HydroDyn
     254  B1RAxi                (rad/s^2)             HydroDyn
     255  B1RAyi                (rad/s^2)             HydroDyn
     256  B1RAzi                (rad/s^2)             HydroDyn
     257  B1WvsFxi              (N)                   HydroDyn
     258  B1WvsFyi              (N)                   HydroDyn
     259  B1WvsFzi              (N)                   HydroDyn
     260  B1WvsMxi              (N-m)                 HydroDyn
     261  B1WvsMyi              (N-m)                 HydroDyn
     262  B1WvsMzi              (N-m)                 HydroDyn
     263  B1HDSFxi              (N)                   HydroDyn
     264  B1HDSFyi              (N)                   HydroDyn
     265  B1HDSFzi              (N)                   HydroDyn
     266  B1HDSMxi              (N-m)                 HydroDyn
     267  B1HDSMyi              (N-m)                 HydroDyn
     268  B1HDSMzi              (N-m)                 HydroDyn
     269  B1RdtFxi              (N)                   HydroDyn
     270  B1RdtFyi              (N)                   HydroDyn
     271  B1RdtFzi              (N)                   HydroDyn
     272  B1RdtMxi              (N-m)                 HydroDyn
     273  B1RdtMyi              (N-m)                 HydroDyn
     274  B1RdtMzi              (N-m)                 HydroDyn
     275  FAIRTEN1              (N)                   MoorDyn
     276  FAIRTEN2              (N)                   MoorDyn
     277  FAIRTEN3              (N)                   MoorDyn
     278  ANCHTEN1              (N)                   MoorDyn
     279  ANCHTEN2              (N)                   MoorDyn
     280  ANCHTEN3              (N)                   MoorDyn
